# vtk DataFile Version 2.0
insac
ASCII
DATASET STRUCTURED_GRID
DIMENSIONS 51 51 1
POINTS 2601 float
0 0 0
0.02 0 0
0.04 0 0
0.06 0 0
0.08 0 0
0.1 0 0
0.12 0 0
0.14 0 0
0.16 0 0
0.18 0 0
0.2 0 0
0.22 0 0
0.24 0 0
0.26 0 0
0.28 0 0
0.3 0 0
0.32 0 0
0.34 0 0
0.36 0 0
0.38 0 0
0.4 0 0
0.42 0 0
0.44 0 0
0.46 0 0
0.48 0 0
0.5 0 0
0.52 0 0
0.54 0 0
0.56 0 0
0.58 0 0
0.6 0 0
0.62 0 0
0.64 0 0
0.66 0 0
0.68 0 0
0.7 0 0
0.72 0 0
0.74 0 0
0.76 0 0
0.78 0 0
0.8 0 0
0.82 0 0
0.84 0 0
0.86 0 0
0.88 0 0
0.9 0 0
0.92 0 0
0.94 0 0
0.96 0 0
0.98 0 0
1 0 0
0 0.02 0
0.02 0.02 0
0.04 0.02 0
0.06 0.02 0
0.08 0.02 0
0.1 0.02 0
0.12 0.02 0
0.14 0.02 0
0.16 0.02 0
0.18 0.02 0
0.2 0.02 0
0.22 0.02 0
0.24 0.02 0
0.26 0.02 0
0.28 0.02 0
0.3 0.02 0
0.32 0.02 0
0.34 0.02 0
0.36 0.02 0
0.38 0.02 0
0.4 0.02 0
0.42 0.02 0
0.44 0.02 0
0.46 0.02 0
0.48 0.02 0
0.5 0.02 0
0.52 0.02 0
0.54 0.02 0
0.56 0.02 0
0.58 0.02 0
0.6 0.02 0
0.62 0.02 0
0.64 0.02 0
0.66 0.02 0
0.68 0.02 0
0.7 0.02 0
0.72 0.02 0
0.74 0.02 0
0.76 0.02 0
0.78 0.02 0
0.8 0.02 0
0.82 0.02 0
0.84 0.02 0
0.86 0.02 0
0.88 0.02 0
0.9 0.02 0
0.92 0.02 0
0.94 0.02 0
0.96 0.02 0
0.98 0.02 0
1 0.02 0
0 0.04 0
0.02 0.04 0
0.04 0.04 0
0.06 0.04 0
0.08 0.04 0
0.1 0.04 0
0.12 0.04 0
0.14 0.04 0
0.16 0.04 0
0.18 0.04 0
0.2 0.04 0
0.22 0.04 0
0.24 0.04 0
0.26 0.04 0
0.28 0.04 0
0.3 0.04 0
0.32 0.04 0
0.34 0.04 0
0.36 0.04 0
0.38 0.04 0
0.4 0.04 0
0.42 0.04 0
0.44 0.04 0
0.46 0.04 0
0.48 0.04 0
0.5 0.04 0
0.52 0.04 0
0.54 0.04 0
0.56 0.04 0
0.58 0.04 0
0.6 0.04 0
0.62 0.04 0
0.64 0.04 0
0.66 0.04 0
0.68 0.04 0
0.7 0.04 0
0.72 0.04 0
0.74 0.04 0
0.76 0.04 0
0.78 0.04 0
0.8 0.04 0
0.82 0.04 0
0.84 0.04 0
0.86 0.04 0
0.88 0.04 0
0.9 0.04 0
0.92 0.04 0
0.94 0.04 0
0.96 0.04 0
0.98 0.04 0
1 0.04 0
0 0.06 0
0.02 0.06 0
0.04 0.06 0
0.06 0.06 0
0.08 0.06 0
0.1 0.06 0
0.12 0.06 0
0.14 0.06 0
0.16 0.06 0
0.18 0.06 0
0.2 0.06 0
0.22 0.06 0
0.24 0.06 0
0.26 0.06 0
0.28 0.06 0
0.3 0.06 0
0.32 0.06 0
0.34 0.06 0
0.36 0.06 0
0.38 0.06 0
0.4 0.06 0
0.42 0.06 0
0.44 0.06 0
0.46 0.06 0
0.48 0.06 0
0.5 0.06 0
0.52 0.06 0
0.54 0.06 0
0.56 0.06 0
0.58 0.06 0
0.6 0.06 0
0.62 0.06 0
0.64 0.06 0
0.66 0.06 0
0.68 0.06 0
0.7 0.06 0
0.72 0.06 0
0.74 0.06 0
0.76 0.06 0
0.78 0.06 0
0.8 0.06 0
0.82 0.06 0
0.84 0.06 0
0.86 0.06 0
0.88 0.06 0
0.9 0.06 0
0.92 0.06 0
0.94 0.06 0
0.96 0.06 0
0.98 0.06 0
1 0.06 0
0 0.08 0
0.02 0.08 0
0.04 0.08 0
0.06 0.08 0
0.08 0.08 0
0.1 0.08 0
0.12 0.08 0
0.14 0.08 0
0.16 0.08 0
0.18 0.08 0
0.2 0.08 0
0.22 0.08 0
0.24 0.08 0
0.26 0.08 0
0.28 0.08 0
0.3 0.08 0
0.32 0.08 0
0.34 0.08 0
0.36 0.08 0
0.38 0.08 0
0.4 0.08 0
0.42 0.08 0
0.44 0.08 0
0.46 0.08 0
0.48 0.08 0
0.5 0.08 0
0.52 0.08 0
0.54 0.08 0
0.56 0.08 0
0.58 0.08 0
0.6 0.08 0
0.62 0.08 0
0.64 0.08 0
0.66 0.08 0
0.68 0.08 0
0.7 0.08 0
0.72 0.08 0
0.74 0.08 0
0.76 0.08 0
0.78 0.08 0
0.8 0.08 0
0.82 0.08 0
0.84 0.08 0
0.86 0.08 0
0.88 0.08 0
0.9 0.08 0
0.92 0.08 0
0.94 0.08 0
0.96 0.08 0
0.98 0.08 0
1 0.08 0
0 0.1 0
0.02 0.1 0
0.04 0.1 0
0.06 0.1 0
0.08 0.1 0
0.1 0.1 0
0.12 0.1 0
0.14 0.1 0
0.16 0.1 0
0.18 0.1 0
0.2 0.1 0
0.22 0.1 0
0.24 0.1 0
0.26 0.1 0
0.28 0.1 0
0.3 0.1 0
0.32 0.1 0
0.34 0.1 0
0.36 0.1 0
0.38 0.1 0
0.4 0.1 0
0.42 0.1 0
0.44 0.1 0
0.46 0.1 0
0.48 0.1 0
0.5 0.1 0
0.52 0.1 0
0.54 0.1 0
0.56 0.1 0
0.58 0.1 0
0.6 0.1 0
0.62 0.1 0
0.64 0.1 0
0.66 0.1 0
0.68 0.1 0
0.7 0.1 0
0.72 0.1 0
0.74 0.1 0
0.76 0.1 0
0.78 0.1 0
0.8 0.1 0
0.82 0.1 0
0.84 0.1 0
0.86 0.1 0
0.88 0.1 0
0.9 0.1 0
0.92 0.1 0
0.94 0.1 0
0.96 0.1 0
0.98 0.1 0
1 0.1 0
0 0.12 0
0.02 0.12 0
0.04 0.12 0
0.06 0.12 0
0.08 0.12 0
0.1 0.12 0
0.12 0.12 0
0.14 0.12 0
0.16 0.12 0
0.18 0.12 0
0.2 0.12 0
0.22 0.12 0
0.24 0.12 0
0.26 0.12 0
0.28 0.12 0
0.3 0.12 0
0.32 0.12 0
0.34 0.12 0
0.36 0.12 0
0.38 0.12 0
0.4 0.12 0
0.42 0.12 0
0.44 0.12 0
0.46 0.12 0
0.48 0.12 0
0.5 0.12 0
0.52 0.12 0
0.54 0.12 0
0.56 0.12 0
0.58 0.12 0
0.6 0.12 0
0.62 0.12 0
0.64 0.12 0
0.66 0.12 0
0.68 0.12 0
0.7 0.12 0
0.72 0.12 0
0.74 0.12 0
0.76 0.12 0
0.78 0.12 0
0.8 0.12 0
0.82 0.12 0
0.84 0.12 0
0.86 0.12 0
0.88 0.12 0
0.9 0.12 0
0.92 0.12 0
0.94 0.12 0
0.96 0.12 0
0.98 0.12 0
1 0.12 0
0 0.14 0
0.02 0.14 0
0.04 0.14 0
0.06 0.14 0
0.08 0.14 0
0.1 0.14 0
0.12 0.14 0
0.14 0.14 0
0.16 0.14 0
0.18 0.14 0
0.2 0.14 0
0.22 0.14 0
0.24 0.14 0
0.26 0.14 0
0.28 0.14 0
0.3 0.14 0
0.32 0.14 0
0.34 0.14 0
0.36 0.14 0
0.38 0.14 0
0.4 0.14 0
0.42 0.14 0
0.44 0.14 0
0.46 0.14 0
0.48 0.14 0
0.5 0.14 0
0.52 0.14 0
0.54 0.14 0
0.56 0.14 0
0.58 0.14 0
0.6 0.14 0
0.62 0.14 0
0.64 0.14 0
0.66 0.14 0
0.68 0.14 0
0.7 0.14 0
0.72 0.14 0
0.74 0.14 0
0.76 0.14 0
0.78 0.14 0
0.8 0.14 0
0.82 0.14 0
0.84 0.14 0
0.86 0.14 0
0.88 0.14 0
0.9 0.14 0
0.92 0.14 0
0.94 0.14 0
0.96 0.14 0
0.98 0.14 0
1 0.14 0
0 0.16 0
0.02 0.16 0
0.04 0.16 0
0.06 0.16 0
0.08 0.16 0
0.1 0.16 0
0.12 0.16 0
0.14 0.16 0
0.16 0.16 0
0.18 0.16 0
0.2 0.16 0
0.22 0.16 0
0.24 0.16 0
0.26 0.16 0
0.28 0.16 0
0.3 0.16 0
0.32 0.16 0
0.34 0.16 0
0.36 0.16 0
0.38 0.16 0
0.4 0.16 0
0.42 0.16 0
0.44 0.16 0
0.46 0.16 0
0.48 0.16 0
0.5 0.16 0
0.52 0.16 0
0.54 0.16 0
0.56 0.16 0
0.58 0.16 0
0.6 0.16 0
0.62 0.16 0
0.64 0.16 0
0.66 0.16 0
0.68 0.16 0
0.7 0.16 0
0.72 0.16 0
0.74 0.16 0
0.76 0.16 0
0.78 0.16 0
0.8 0.16 0
0.82 0.16 0
0.84 0.16 0
0.86 0.16 0
0.88 0.16 0
0.9 0.16 0
0.92 0.16 0
0.94 0.16 0
0.96 0.16 0
0.98 0.16 0
1 0.16 0
0 0.18 0
0.02 0.18 0
0.04 0.18 0
0.06 0.18 0
0.08 0.18 0
0.1 0.18 0
0.12 0.18 0
0.14 0.18 0
0.16 0.18 0
0.18 0.18 0
0.2 0.18 0
0.22 0.18 0
0.24 0.18 0
0.26 0.18 0
0.28 0.18 0
0.3 0.18 0
0.32 0.18 0
0.34 0.18 0
0.36 0.18 0
0.38 0.18 0
0.4 0.18 0
0.42 0.18 0
0.44 0.18 0
0.46 0.18 0
0.48 0.18 0
0.5 0.18 0
0.52 0.18 0
0.54 0.18 0
0.56 0.18 0
0.58 0.18 0
0.6 0.18 0
0.62 0.18 0
0.64 0.18 0
0.66 0.18 0
0.68 0.18 0
0.7 0.18 0
0.72 0.18 0
0.74 0.18 0
0.76 0.18 0
0.78 0.18 0
0.8 0.18 0
0.82 0.18 0
0.84 0.18 0
0.86 0.18 0
0.88 0.18 0
0.9 0.18 0
0.92 0.18 0
0.94 0.18 0
0.96 0.18 0
0.98 0.18 0
1 0.18 0
0 0.2 0
0.02 0.2 0
0.04 0.2 0
0.06 0.2 0
0.08 0.2 0
0.1 0.2 0
0.12 0.2 0
0.14 0.2 0
0.16 0.2 0
0.18 0.2 0
0.2 0.2 0
0.22 0.2 0
0.24 0.2 0
0.26 0.2 0
0.28 0.2 0
0.3 0.2 0
0.32 0.2 0
0.34 0.2 0
0.36 0.2 0
0.38 0.2 0
0.4 0.2 0
0.42 0.2 0
0.44 0.2 0
0.46 0.2 0
0.48 0.2 0
0.5 0.2 0
0.52 0.2 0
0.54 0.2 0
0.56 0.2 0
0.58 0.2 0
0.6 0.2 0
0.62 0.2 0
0.64 0.2 0
0.66 0.2 0
0.68 0.2 0
0.7 0.2 0
0.72 0.2 0
0.74 0.2 0
0.76 0.2 0
0.78 0.2 0
0.8 0.2 0
0.82 0.2 0
0.84 0.2 0
0.86 0.2 0
0.88 0.2 0
0.9 0.2 0
0.92 0.2 0
0.94 0.2 0
0.96 0.2 0
0.98 0.2 0
1 0.2 0
0 0.22 0
0.02 0.22 0
0.04 0.22 0
0.06 0.22 0
0.08 0.22 0
0.1 0.22 0
0.12 0.22 0
0.14 0.22 0
0.16 0.22 0
0.18 0.22 0
0.2 0.22 0
0.22 0.22 0
0.24 0.22 0
0.26 0.22 0
0.28 0.22 0
0.3 0.22 0
0.32 0.22 0
0.34 0.22 0
0.36 0.22 0
0.38 0.22 0
0.4 0.22 0
0.42 0.22 0
0.44 0.22 0
0.46 0.22 0
0.48 0.22 0
0.5 0.22 0
0.52 0.22 0
0.54 0.22 0
0.56 0.22 0
0.58 0.22 0
0.6 0.22 0
0.62 0.22 0
0.64 0.22 0
0.66 0.22 0
0.68 0.22 0
0.7 0.22 0
0.72 0.22 0
0.74 0.22 0
0.76 0.22 0
0.78 0.22 0
0.8 0.22 0
0.82 0.22 0
0.84 0.22 0
0.86 0.22 0
0.88 0.22 0
0.9 0.22 0
0.92 0.22 0
0.94 0.22 0
0.96 0.22 0
0.98 0.22 0
1 0.22 0
0 0.24 0
0.02 0.24 0
0.04 0.24 0
0.06 0.24 0
0.08 0.24 0
0.1 0.24 0
0.12 0.24 0
0.14 0.24 0
0.16 0.24 0
0.18 0.24 0
0.2 0.24 0
0.22 0.24 0
0.24 0.24 0
0.26 0.24 0
0.28 0.24 0
0.3 0.24 0
0.32 0.24 0
0.34 0.24 0
0.36 0.24 0
0.38 0.24 0
0.4 0.24 0
0.42 0.24 0
0.44 0.24 0
0.46 0.24 0
0.48 0.24 0
0.5 0.24 0
0.52 0.24 0
0.54 0.24 0
0.56 0.24 0
0.58 0.24 0
0.6 0.24 0
0.62 0.24 0
0.64 0.24 0
0.66 0.24 0
0.68 0.24 0
0.7 0.24 0
0.72 0.24 0
0.74 0.24 0
0.76 0.24 0
0.78 0.24 0
0.8 0.24 0
0.82 0.24 0
0.84 0.24 0
0.86 0.24 0
0.88 0.24 0
0.9 0.24 0
0.92 0.24 0
0.94 0.24 0
0.96 0.24 0
0.98 0.24 0
1 0.24 0
0 0.26 0
0.02 0.26 0
0.04 0.26 0
0.06 0.26 0
0.08 0.26 0
0.1 0.26 0
0.12 0.26 0
0.14 0.26 0
0.16 0.26 0
0.18 0.26 0
0.2 0.26 0
0.22 0.26 0
0.24 0.26 0
0.26 0.26 0
0.28 0.26 0
0.3 0.26 0
0.32 0.26 0
0.34 0.26 0
0.36 0.26 0
0.38 0.26 0
0.4 0.26 0
0.42 0.26 0
0.44 0.26 0
0.46 0.26 0
0.48 0.26 0
0.5 0.26 0
0.52 0.26 0
0.54 0.26 0
0.56 0.26 0
0.58 0.26 0
0.6 0.26 0
0.62 0.26 0
0.64 0.26 0
0.66 0.26 0
0.68 0.26 0
0.7 0.26 0
0.72 0.26 0
0.74 0.26 0
0.76 0.26 0
0.78 0.26 0
0.8 0.26 0
0.82 0.26 0
0.84 0.26 0
0.86 0.26 0
0.88 0.26 0
0.9 0.26 0
0.92 0.26 0
0.94 0.26 0
0.96 0.26 0
0.98 0.26 0
1 0.26 0
0 0.28 0
0.02 0.28 0
0.04 0.28 0
0.06 0.28 0
0.08 0.28 0
0.1 0.28 0
0.12 0.28 0
0.14 0.28 0
0.16 0.28 0
0.18 0.28 0
0.2 0.28 0
0.22 0.28 0
0.24 0.28 0
0.26 0.28 0
0.28 0.28 0
0.3 0.28 0
0.32 0.28 0
0.34 0.28 0
0.36 0.28 0
0.38 0.28 0
0.4 0.28 0
0.42 0.28 0
0.44 0.28 0
0.46 0.28 0
0.48 0.28 0
0.5 0.28 0
0.52 0.28 0
0.54 0.28 0
0.56 0.28 0
0.58 0.28 0
0.6 0.28 0
0.62 0.28 0
0.64 0.28 0
0.66 0.28 0
0.68 0.28 0
0.7 0.28 0
0.72 0.28 0
0.74 0.28 0
0.76 0.28 0
0.78 0.28 0
0.8 0.28 0
0.82 0.28 0
0.84 0.28 0
0.86 0.28 0
0.88 0.28 0
0.9 0.28 0
0.92 0.28 0
0.94 0.28 0
0.96 0.28 0
0.98 0.28 0
1 0.28 0
0 0.3 0
0.02 0.3 0
0.04 0.3 0
0.06 0.3 0
0.08 0.3 0
0.1 0.3 0
0.12 0.3 0
0.14 0.3 0
0.16 0.3 0
0.18 0.3 0
0.2 0.3 0
0.22 0.3 0
0.24 0.3 0
0.26 0.3 0
0.28 0.3 0
0.3 0.3 0
0.32 0.3 0
0.34 0.3 0
0.36 0.3 0
0.38 0.3 0
0.4 0.3 0
0.42 0.3 0
0.44 0.3 0
0.46 0.3 0
0.48 0.3 0
0.5 0.3 0
0.52 0.3 0
0.54 0.3 0
0.56 0.3 0
0.58 0.3 0
0.6 0.3 0
0.62 0.3 0
0.64 0.3 0
0.66 0.3 0
0.68 0.3 0
0.7 0.3 0
0.72 0.3 0
0.74 0.3 0
0.76 0.3 0
0.78 0.3 0
0.8 0.3 0
0.82 0.3 0
0.84 0.3 0
0.86 0.3 0
0.88 0.3 0
0.9 0.3 0
0.92 0.3 0
0.94 0.3 0
0.96 0.3 0
0.98 0.3 0
1 0.3 0
0 0.32 0
0.02 0.32 0
0.04 0.32 0
0.06 0.32 0
0.08 0.32 0
0.1 0.32 0
0.12 0.32 0
0.14 0.32 0
0.16 0.32 0
0.18 0.32 0
0.2 0.32 0
0.22 0.32 0
0.24 0.32 0
0.26 0.32 0
0.28 0.32 0
0.3 0.32 0
0.32 0.32 0
0.34 0.32 0
0.36 0.32 0
0.38 0.32 0
0.4 0.32 0
0.42 0.32 0
0.44 0.32 0
0.46 0.32 0
0.48 0.32 0
0.5 0.32 0
0.52 0.32 0
0.54 0.32 0
0.56 0.32 0
0.58 0.32 0
0.6 0.32 0
0.62 0.32 0
0.64 0.32 0
0.66 0.32 0
0.68 0.32 0
0.7 0.32 0
0.72 0.32 0
0.74 0.32 0
0.76 0.32 0
0.78 0.32 0
0.8 0.32 0
0.82 0.32 0
0.84 0.32 0
0.86 0.32 0
0.88 0.32 0
0.9 0.32 0
0.92 0.32 0
0.94 0.32 0
0.96 0.32 0
0.98 0.32 0
1 0.32 0
0 0.34 0
0.02 0.34 0
0.04 0.34 0
0.06 0.34 0
0.08 0.34 0
[...]
POINT_DATA 2601
SCALARS pressure float 1
LOOKUP_TABLE default
0.0152773
0.0152355
0.0150903
0.0148441
0.0145386
0.0142091
0.0138838
0.0135831
0.0133218
0.0131094
0.0129523
0.0128543
0.0128179
0.0128442
0.012934
0.0130876
0.0133047
0.0135848
0.0139268
0.0143288
0.014788
0.0153005
0.0158612
0.0164634
0.0170989
0.017758
0.0184296
0.0191011
0.0197593
0.0203898
0.0209783
0.0215106
0.0219736
0.0223554
0.0226462
0.0228389
0.0229292
0.0229165
0.0228038
0.022598
0.0223097
0.0219533
0.0215467
0.0211109
0.0206696
0.0202489
0.0198764
0.0195797
0.0193822
0.0193028
0.0192948
0.0153113
0.0152697
0.0151335
0.0149099
0.0146341
0.0143366
0.0140418
0.0137686
0.0135303
0.0133363
0.0131929
0.0131041
0.0130725
0.0130996
0.0131862
0.0133329
0.0135395
0.0138056
0.0141301
0.0145112
0.0149463
0.0154316
0.0159622
0.0165316
0.0171323
0.0177548
0.0183888
0.0190225
0.0196432
0.0202375
0.0207921
0.0212936
0.0217298
0.0220897
0.0223641
0.0225465
0.0226333
0.0226239
0.0225214
0.0223324
0.0220671
0.0217391
0.0213652
0.020965
0.0205604
0.0201753
0.0198344
0.0195624
0.0193798
0.0193068
0.0193005
0.0154427
0.0153919
0.0152549
0.015057
0.0148207
0.0145687
0.0143198
0.0140887
0.0138869
0.0137224
0.0136012
0.0135272
0.0135031
0.0135307
0.0136112
0.0137452
0.0139329
0.0141739
0.0144675
0.0148121
0.0152052
0.0156435
0.0161225
0.0166365
0.0171784
0.0177399
0.0183116
0.0188828
0.0194421
0.0199775
0.0204771
0.0209289
0.0213219
0.0216464
0.0218944
0.0220602
0.0221407
0.0221358
0.0220485
0.021885
0.0216547
0.0213699
0.0210456
0.0206991
0.0203494
0.0200168
0.0197216
0.019484
0.019321
0.0192534
0.0192468
0.0156798
0.0156042
0.0154366
0.0152356
0.0150104
0.0147787
0.0145542
0.0143481
0.0141693
0.0140244
0.013918
0.0138537
0.0138338
0.0138602
0.013934
0.0140559
0.0142264
0.0144454
0.0147123
0.015026
0.0153843
0.0157845
0.0162224
0.016693
0.0171899
0.0177056
0.0182312
0.0187572
0.0192728
0.019767
0.0202286
0.0206464
0.0210102
0.021311
0.0215411
0.0216954
0.021771
0.0217678
0.0216886
0.0215394
0.0213289
0.0210685
0.0207719
0.0204548
0.0201341
0.0198276
0.0195531
0.0193276
0.0191665
0.0190882
0.0190727
0.0159832
0.0158727
0.0156566
0.0154362
0.0152067
0.0149816
0.0147697
0.014579
0.0144156
0.0142841
0.014188
0.0141298
0.0141116
0.0141347
0.0142004
0.0143094
0.0144624
0.0146596
0.0149007
0.015185
0.0155111
0.0158764
0.0162776
0.0167101
0.0171684
0.0176455
0.0181333
0.0186227
0.0191039
0.0195662
0.0199989
0.0203915
0.020734
0.0210175
0.021235
0.021381
0.0214527
0.0214501
0.0213756
0.0212348
0.0210359
0.0207895
0.0205084
0.0202068
0.0199003
0.0196045
0.0193351
0.019107
0.018934
0.018829
0.018795
0.016318
0.0161673
0.0158916
0.0156403
0.0153946
0.0151648
0.0149556
0.0147715
0.014616
0.0144919
0.0144011
0.0143452
0.0143255
0.0143431
0.014399
0.0144941
0.0146291
0.0148048
0.0150212
0.0152781
0.0155746
0.0159087
0.0162779
0.0166782
0.0171045
0.0175505
0.0180089
0.0184708
0.0189269
0.0193669
0.0197803
0.0201566
0.020486
0.0207596
0.02097
0.0211117
0.0211817
0.0211794
0.0211071
0.0209699
0.0207755
0.020534
0.0202573
0.0199588
0.0196528
0.0193537
0.0190756
0.0188315
0.0186343
0.0184898
0.0184306
0.0166537
0.0164604
0.0161197
0.0158305
0.0155608
0.0153184
0.0151042
0.0149199
0.0147663
0.0146442
0.0145542
0.0144967
0.0144723
0.0144817
0.0145258
0.0146055
0.0147219
0.0148759
0.0150681
0.0152989
0.0155679
0.0158739
0.016215
0.0165877
0.0169878
0.0174095
0.0178457
0.0182881
0.0187276
0.019154
0.0195569
0.0199255
0.0202498
0.0205205
0.0207298
0.0208718
0.0209428
0.020942
0.020871
0.0207345
0.0205396
0.0202961
0.0200152
0.0197097
0.0193933
0.0190793
0.0187809
0.0185098
0.0182785
0.0180856
0.0179966
0.0169644
0.0167282
0.0163204
0.0159894
0.0156907
0.0154304
0.0152057
0.0150156
0.0148587
0.014734
0.0146405
0.0145776
0.0145452
0.0145437
0.0145737
0.0146363
0.0147328
0.0148645
0.0150327
0.0152381
0.0154812
0.0157616
0.0160777
0.0164272
0.0168061
0.0172092
0.0176299
0.0180602
0.018491
0.0189122
0.0193129
0.0196822
0.0200095
0.0202849
0.0204997
0.0206475
0.0207237
0.0207267
0.0206577
0.0205206
0.0203221
0.0200715
0.0197798
0.0194594
0.0191234
0.0187849
0.0184565
0.0181492
0.0178759
0.017628
0.0175064
0.0172279
0.0169495
0.0164749
0.0161005
0.0157701
0.0154881
0.015249
0.0150489
0.0148846
0.014753
0.014652
0.0145801
0.0145364
0.014521
0.0145343
0.0145777
0.0146527
0.0147611
0.0149047
0.015085
0.0153032
0.0155595
0.0158533
0.0161828
0.0165448
0.0169345
0.0173457
0.0177706
0.0182002
0.018624
0.019031
0.0194095
0.0197482
0.0200363
0.0202643
0.0204244
0.0205112
0.0205221
0.0204574
0.0203202
0.020117
0.0198563
0.0195489
0.0192073
0.0188444
0.0184734
0.0181069
0.0177557
0.0174336
0.0171259
0.0169697
0.0174247
0.0171056
0.0165659
0.0161478
0.0157845
0.0154788
0.0152223
0.0150091
0.0148338
0.0146918
0.0145797
0.0144952
0.0144368
0.0144042
0.014398
0.0144196
0.014471
0.0145544
0.0146724
0.0148271
0.0150205
0.0152537
0.0155269
0.0158391
0.0161876
0.0165683
0.0169753
0.017401
0.0178363
0.0182705
0.0186921
0.0190886
0.0194477
0.0197575
0.0200071
0.0201875
0.0202919
0.0203164
0.0202601
0.0201255
0.019918
0.0196459
0.01932
0.0189526
0.018557
0.0181468
0.0177352
0.0173334
0.0169568
0.0165849
0.0163923
0.0175373
0.0171794
0.0165772
0.0161164
0.0157199
0.0153894
0.0151138
0.0148849
0.0146957
0.01454
0.0144134
0.0143127
0.014236
0.0141829
0.014154
0.0141509
0.014176
0.0142322
0.0143227
0.0144506
0.0146186
0.0148287
0.0150821
0.0153785
0.0157161
0.0160913
0.0164987
0.0169307
0.0173783
0.0178305
0.018275
0.0186987
0.0190879
0.0194292
0.0197103
0.0199204
0.0200512
0.0200969
0.0200554
0.0199277
0.0197186
0.019436
0.0190902
0.0186941
0.0182614
0.0178065
0.0173438
0.0168852
0.0164487
0.0160082
0.0157773
0.0175498
0.0171552
0.0164937
0.0159918
0.0155628
0.0152071
0.0149111
0.0146647
0.0144589
0.0142866
0.0141422
0.0140218
0.0139233
0.013846
0.0137907
0.0137594
0.013755
0.013781
0.0138414
0.0139402
0.0140812
0.0142673
0.0145006
0.0147818
0.01511
0.0154822
0.0158935
0.0163368
0.0168028
0.0172802
0.0177562
0.0182165
0.0186461
0.0190301
0.019354
0.0196052
0.0197729
0.0198498
0.0198314
0.0197177
0.0195119
0.0192214
0.0188565
0.0184303
0.0179574
0.0174535
0.0169342
0.0164132
0.0159112
0.015397
0.0151253
0.0174475
0.0170186
0.0163015
0.0157606
0.0153001
0.0149194
0.0146022
0.0143366
0.0141122
0.0139205
0.013755
0.0136114
0.0134871
0.0133817
0.013296
0.0132324
0.0131944
0.0131865
0.0132133
0.0132799
0.013391
0.0135508
0.0137625
0.0140278
0.0143467
0.0147174
0.0151354
0.0155937
0.0160836
0.0165933
0.0171092
0.0176161
0.0180973
0.0185361
0.0189158
0.0192211
0.019439
0.0195591
0.0195752
0.0194847
0.0192897
0.0189965
0.0186153
0.0181594
0.0176446
0.0170881
0.0165075
0.0159185
0.0153451
0.0147513
0.0144358
0.0172167
0.0167561
0.0159874
0.0154101
0.0149197
0.0145143
0.0141754
0.0138894
0.0136443
0.0134304
0.0132405
0.0130699
0.0129159
0.0127779
0.0126572
0.0125567
0.0124805
0.0124338
0.0124224
0.0124524
0.0125297
0.0126596
0.0128467
0.0130939
0.0134025
0.0137716
0.0141974
0.0146739
0.0151921
0.0157404
0.0163046
0.0168682
0.017413
0.0179199
0.01837
0.0187448
0.0190282
0.0192069
0.0192713
0.0192166
0.0190427
0.0187547
0.0183622
0.0178791
0.0173222
0.0167107
0.0160646
0.0154018
0.0147509
0.0140703
0.0137071
0.0168449
0.0163554
0.0155396
0.0149285
0.0144099
0.0139805
0.0136197
0.0133121
0.0130441
0.0128053
0.0125878
0.0123863
0.012198
0.0120227
0.0118619
0.0117191
0.0115991
0.0115081
0.0114528
0.0114406
0.0114785
0.0115735
0.0117314
0.0119567
0.0122519
0.0126176
0.0130512
0.0135472
0.0140973
0.0146898
0.0153101
0.0159405
0.0165613
0.017151
0.0176876
0.0181495
0.0185167
0.018772
0.0189022
0.0188991
0.0187601
0.0184882
0.0180924
0.0175868
0.0169894
0.0163216
0.0156062
0.0148643
0.014129
0.0133533
0.0129375
0.0163205
0.0158051
0.014947
0.0143053
0.0137604
0.0133079
0.0129248
0.0125943
0.0123016
0.0120351
0.0117863
0.0115498
0.0113227
0.0111048
0.0108983
0.0107071
0.0105369
0.0103948
0.0102887
0.0102272
0.0102189
0.0102722
0.0103945
0.0105921
0.0108692
0.0112278
0.011667
0.0121823
0.0127661
0.0134071
0.0140905
0.0147977
0.0155071
0.016195
0.016836
0.0174047
0.0178766
0.01823
0.0184472
0.0185156
0.018429
0.018188
0.0178001
0.0172794
0.0166453
0.0159214
0.0151339
0.0143073
0.0134803
0.0125998
0.0121257
0.0156335
0.0150955
0.0142001
0.0135309
0.0129618
0.0124869
0.0120815
0.011727
0.0114074
0.0111103
0.0108267
0.0105508
0.0102798
0.0100138
0.00975528
0.00950895
0.00928131
0.00908042
0.00891546
0.00879632
0.00873325
0.00873626
0.00881472
0.00897673
0.00922861
0.00957429
0.0100147
0.0105469
0.0111643
0.0118566
0.0126088
0.0134018
0.0142124
0.0150143
0.0157787
0.0164759
0.0170765
0.0175531
0.0178823
0.0180464
0.0180343
0.0178432
0.0174785
0.0169536
0.0162892
0.0155112
0.0146496
0.013733
0.0128065
0.0118103
0.0112714
0.0147751
0.0142178
0.0132905
0.0125971
0.0120059
0.0115097
0.0110818
0.0107021
0.0103536
0.010023
0.00970077
0.00938095
0.00906082
0.00874069
0.00842352
0.00811467
0.00782152
0.00755318
0.00732007
0.00713358
0.0070056
0.00694806
0.00697237
0.00708885
0.00730614
0.00763048
0.00806532
0.00860952
0.00925803
0.0100019
0.0108268
0.0117131
0.0126366
0.0135683
0.0144762
0.0153254
0.0160811
0.0167094
0.0171801
0.0174687
0.0175584
0.0174412
0.0171196
0.0166055
0.0159203
0.0150926
0.0141565
0.0131451
0.012111
0.0109867
0.0103756
0.0137379
0.0131649
0.0122114
0.0114974
0.0108863
0.0103697
0.00991913
0.00951318
0.00913366
0.00876661
0.00840202
0.00803373
0.00765907
0.0072786
0.00689575
0.00651652
0.00614918
0.00580388
0.00549236
0.00522754
0.0050231
0.00489299
0.0048509
0.00490965
0.00508053
0.00537252
0.00579207
0.00634047
0.00701471
0.00780789
0.00870669
0.00969194
0.0107384
0.0118151
0.0128862
0.0139123
0.0148518
0.0156636
0.0163095
0.0167567
0.0169808
0.0169674
0.0167141
0.0162307
0.0155384
0.0146684
0.0136591
0.0125489
0.0113989
0.0101333
0.00944166
0.0125165
0.0119316
0.0109576
0.0102265
0.00959789
0.00906194
0.00858866
0.00815539
0.00774295
0.00733665
0.00692605
0.00650479
0.00607024
0.00562318
0.00516747
0.00470975
0.00425911
0.00382678
0.00342579
0.00307066
0.00277693
0.00256071
0.00243818
0.0024249
0.00253517
0.00278115
0.00317278
0.00371442
0.00440573
0.00524253
0.00621345
0.00730022
0.0084774
0.00971239
0.010966
0.0121937
0.0133473
0.0143774
0.0152362
0.0158813
0.0162784
0.0164048
0.0162515
0.0158243
0.0151436
0.0142424
0.0131638
0.011952
0.0106781
0.00925696
0.00847555
0.0111073
0.0105142
0.00952567
0.00878118
0.00813734
0.00758319
0.00708734
0.00662593
0.00617887
0.0057308
0.00527085
0.00479242
0.00429289
0.0037732
0.00323761
0.0026933
0.00215016
0.00162044
0.00111848
0.000660377
0.000263598
-5.34584e-05
-0.000271996
-0.000373449
-0.000340205
-0.000156482
0.000191249
0.000711864
0.00140848
0.00227959
0.003317
0.00450427
0.00581658
0.00722041
0.00867379
0.0101273
0.0115257
0.0128107
0.0139238
0.0148108
0.0154257
0.0157347
0.01572
0.0153814
0.0147367
0.01382
0.0126794
0.0113651
0.0099597
0.00836794
0.00748692
0.00950855
0.00891111
0.00791399
0.00715973
0.00650313
0.0059321
0.00541403
0.00492401
0.0044411
0.00394925
0.00343714
0.00289793
0.0023289
0.0017311
0.00110906
0.000470481
-0.000174073
-0.000811378
-0.00142585
-0.00199981
-0.00251385
-0.00294722
-0.00327838
-0.00348557
-0.00354756
-0.00344459
-0.00315921
-0.00267703
-0.00199073
-0.00109861
-4.56262e-06
0.0012778
0.00272539
0.00430472
0.00597189
0.00767312
0.00934631
0.0109236
0.0123347
0.013512
0.0143952
0.0149368
0.015107
0.0148967
0.0143193
0.0134088
0.0122173
0.0108023
0.00925889
0.00748097
0.00648984
0.00772076
0.00712268
0.00612275
0.00536236
0.00469552
0.00410916
0.00356962
0.00305107
0.00253172
0.00199486
0.00142868
0.000825975
0.000183862
-0.000496601
-0.00121071
-0.00195042
-0.00270453
-0.00345897
-0.00419698
-0.00489935
-0.00554475
-0.00611007
-0.00657092
-0.00690221
-0.00707889
-0.00707686
-0.0068741
-0.00645059
-0.00579403
-0.00489818
-0.00376187
-0.00239466
-0.000816711
0.000939828
0.00283025
0.00479739
0.00677275
0.00867887
0.010433
0.0119522
0.0131594
0.0139903
0.0143995
0.0143658
0.0138949
0.0130187
0.0117929
0.0102821
0.00859585
0.00661614
0.00550383
0.00574644
0.00515122
0.00415398
0.00339098
0.00271654
0.00211671
0.00155701
0.00101075
0.000455336
-0.000126648
-0.000747613
-0.0014152
-0.00213259
-0.00289888
-0.00370933
-0.00455564
-0.00542617
-0.00630608
-0.00717754
-0.00801991
-0.00880998
-0.00952231
-0.0101296
-0.0106035
-0.0109147
-0.0110348
-0.0109367
-0.0105943
-0.00998963
-0.00911097
-0.00795114
-0.00651436
-0.00481653
-0.00288693
-0.000769572
0.00147635
0.00377698
0.00604575
0.00818694
0.0101011
0.0116921
0.0128752
0.0135855
0.0137853
0.0134689
0.0126632
0.0114259
0.0098286
0.00799689
0.00580004
0.00455515
0.00359014
0.00300094
0.00201138
0.00124912
0.000569818
-4.11744e-05
-0.00061897
-0.00119107
-0.00178089
-0.00240664
-0.00308144
-0.00381353
-0.00460658
-0.00545997
-0.00636911
-0.00732562
-0.00831754
-0.00932944
-0.0103425
-0.0113348
-0.0122814
-0.0131544
-0.0139239
-0.0145579
-0.0150232
-0.0152866
-0.0153157
-0.0150788
-0.0145504
-0.0137122
-0.0125514
-0.0110652
-0.00926358
-0.00717144
-0.00483023
-0.00229938
0.000343482
0.00300376
0.0055731
0.00793478
0.00997143
0.0115746
0.0126555
0.0131548
0.0130503
0.0123602
0.0111415
0.00947241
0.00749577
0.00506725
0.00367818
0.00125829
0.000677751
-0.000299862
-0.00105828
-0.00173957
-0.00235885
-0.00295171
-0.00354644
-0.00416735
-0.00483358
-0.00555916
-0.00635313
-0.00721985
-0.00815922
-0.00916697
-0.0102348
-0.0113507
-0.0124987
-0.0136592
-0.0148091
-0.0159216
-0.016967
-0.0179123
-0.0187223
-0.0193597
-0.0197866
-0.0199649
-0.0198579
-0.0194309
-0.0186587
-0.0175225
-0.016011
-0.0141271
-0.0118893
-0.00933457
-0.00652041
-0.00352609
-0.000452404
0.00258073
0.00543934
0.0079834
0.0100777
0.0116048
0.012478
0.0126529
0.0121333
0.0109721
0.00925227
0.00713521
0.00446194
0.00291715
-0.00124102
-0.00181096
-0.00277338
-0.00352524
-0.00420547
-0.00482944
-0.00543308
-0.0060455
-0.00669207
-0.0073931
-0.00816378
-0.00901425
-0.00994981
-0.0109711
-0.0120745
-0.0132519
-0.0144913
-0.0157765
-0.0170872
-0.0183993
-0.0196845
-0.0209109
-0.022043
-0.0230421
-0.0238671
-0.0244754
-0.0248233
-0.0248684
-0.0245678
-0.0238882
-0.0228039
-0.0212943
-0.0193539
-0.0169931
-0.0142424
-0.0111547
-0.0078085
-0.00430824
-0.000783402
0.00261578
0.00572612
0.00838323
0.0104365
0.0117659
0.0122973
0.0120136
0.0109585
0.00921674
0.0069688
0.00403983
0.0023281
-0.00389841
-0.00445674
-0.00540207
-0.00614515
-0.00682107
-0.00744519
-0.00805373
-0.00867676
-0.00934098
-0.0100682
-0.0108752
-0.0117734
-0.0127696
-0.0138654
-0.0150579
-0.0163396
-0.0176988
-0.0191189
-0.0205794
-0.0220549
-0.0235159
-0.0249285
-0.0262546
-0.0274525
-0.0284774
-0.0292817
-0.0298166
-0.0300336
-0.0298821
-0.0293209
-0.0283156
-0.0268364
-0.024868
-0.0224114
-0.0194882
-0.0161447
-0.0124553
-0.00852511
-0.00449027
-0.000515148
0.00321458
0.00650394
0.00916537
0.011039
0.0120135
0.0120421
0.0111522
0.00942624
0.00706309
0.00387041
0.00198118
-0.00670365
-0.00725059
-0.00817867
-0.00891137
-0.00957945
-0.010198
-0.0108036
-0.0114275
-0.0120982
-0.0128395
-0.0136702
-0.0146038
-0.0156485
-0.0168075
-0.0180789
-0.019456
-0.0209273
-0.0224764
-0.0240822
-0.0257186
-0.0273546
-0.0289546
-0.0304782
-0.0318805
-0.033113
-0.034124
-0.0348593
-0.0352642
-0.0352823
-0.0348621
-0.0339602
-0.032539
-0.0305717
-0.0280488
-0.0249813
-0.021406
-0.0173905
-0.013037
-0.00848445
-0.00390827
0.000485521
0.00447136
0.00782201
0.010332
0.011844
0.0122719
0.011618
0.00995553
0.00750012
0.00403954
0.00196324
-0.00964631
-0.0101836
-0.0110965
-0.011818
-0.0124743
-0.01308
-0.0136723
-0.0142841
-0.0149463
-0.0156854
-0.016523
-0.017475
-0.0185519
-0.0197587
-0.0210947
-0.0225543
-0.0241263
-0.0257946
-0.0275375
-0.0293283
-0.0311347
-0.0329192
-0.0346391
-0.0362469
-0.0376904
-0.0389137
-0.0398577
-0.0404617
-0.0406643
-0.0404032
-0.0396259
-0.0382873
-0.0363486
-0.0337888
-0.0306069
-0.0268282
-0.0225103
-0.0177487
-0.0126813
-0.00749015
-0.00239804
0.00234058
0.00645758
0.00969706
0.0118472
0.0127719
0.0124364
0.0108966
0.00838035
0.00465244
0.00238088
-0.0127165
-0.013248
-0.0141504
-0.0148607
-0.0155007
-0.0160844
-0.0166498
-0.0172325
-0.0178667
-0.0185826
-0.0194053
-0.0203542
-0.0214423
-0.0226769
-0.0240591
-0.0255842
-0.0272418
-0.0290156
-0.0308838
-0.0328187
-0.0347868
-0.0367489
-0.03866
-0.0404697
-0.0421225
-0.0435585
-0.0447141
-0.0455228
-0.0459174
-0.0458276
-0.0451915
-0.043955
-0.0420682
-0.0394979
-0.0362303
-0.0322774
-0.0276844
-0.0225366
-0.0169662
-0.0111567
-0.00534325
0.000194559
0.00514849
0.00920905
0.0121023
0.0136301
0.0137079
0.0123618
0.00982601
0.0058371
0.00336382
-0.0159061
-0.0164379
-0.0173381
-0.0180381
-0.0186565
-0.0192062
-0.0197272
-0.0202589
-0.0208401
-0.0215061
-0.0222868
-0.0232055
-0.0242791
-0.0255172
-0.026923
-0.028493
-0.0302173
-0.0320798
-0.0340581
-0.0361235
-0.0382412
-0.0403701
-0.042463
-0.0444667
-0.0463225
-0.0479666
-0.0493308
-0.0503436
-0.0509317
-0.0510182
-0.0505323
-0.0494102
-0.0475918
-0.0450316
-0.0417023
-0.0376019
-0.0327608
-0.0272513
-0.0211954
-0.0147731
-0.00822552
-0.00185257
0.00400055
0.00896982
0.0127128
0.014958
0.0155559
0.014488
0.011985
0.00774821
0.00506888
-0.0192096
-0.0197511
-0.0206614
-0.0213531
-0.0219429
-0.0224431
-0.0228971
-0.0233498
-0.0238466
-0.0244296
-0.0251349
-0.0259912
-0.0270194
-0.0282324
-0.0296354
-0.0312263
-0.0329955
-0.0349269
-0.0369973
-0.039177
-0.0414293
-0.0437113
-0.0459734
-0.0481594
-0.0502075
-0.05205
-0.0536145
-0.0548245
-0.0556011
-0.0558621
-0.055527
-0.0545222
-0.0527797
-0.0502413
-0.0468665
-0.0426383
-0.0375716
-0.0317229
-0.0252005
-0.0181754
-0.0108888
-0.00365396
0.00315202
0.00911226
0.0138119
0.0168954
0.0181319
0.0174407
0.0150355
0.0105718
0.00768452
-0.0226266
-0.023191
-0.0241292
-0.0248151
-0.0253669
-0.0257969
-0.0261545
-0.0264925
-0.0268658
-0.0273254
-0.0279154
-0.0286711
-0.0296184
-0.0307736
-0.0321443
-0.0337293
-0.0355195
-0.0374981
-0.0396409
-0.0419166
-0.0442867
-0.0467058
-0.0491216
-0.0514752
-0.0537012
-0.0557282
-0.0574797
-0.0588743
-0.0598276
-0.0602528
-0.0600601
-0.059167
-0.0574976
-0.0549819
-0.0515667
-0.0472202
-0.0419412
-0.0357686
-0.0287946
-0.0211763
-0.0131485
-0.00503085
0.00277489
0.00980327
0.0155659
0.0196143
0.0216201
0.0214197
0.0191914
0.0145307
0.0114363
-0.0261637
-0.0267696
-0.0277593
-0.0284422
-0.0289425
-0.0292747
-0.0294974
-0.0296757
-0.0298771
-0.0301647
-0.0305924
-0.0312036
-0.0320298
-0.0330913
-0.0343976
-0.0359483
-0.0377342
-0.0397373
-0.041932
-0.0442847
-0.0467546
-0.0492936
-0.0518463
-0.0543506
-0.0567374
-0.0589317
-0.0608524
-0.0624138
-0.0635258
-0.0640964
-0.0640292
-0.0632331
-0.061623
-0.059119
-0.0556554
-0.0511865
-0.0456949
-0.0392018
-0.0317806
-0.0235716
-0.0147974
-0.00577616
0.00307371
0.011245
0.0181777
0.0233241
0.0262429
0.0266643
0.0247089
0.0198915
0.0165935
-0.0298386
-0.030511
-0.0315835
-0.0322648
-0.0326937
-0.0328899
-0.0329275
-0.0328889
-0.0328592
-0.0329166
-0.0331278
-0.0335451
-0.0342064
-0.0351356
-0.036344
-0.0378315
-0.0395878
-0.0415932
-0.0438196
-0.0462307
-0.0487827
-0.0514241
-0.0540961
-0.0567329
-0.0592617
-0.0616034
-0.0636725
-0.0653784
-0.0666261
-0.0673176
-0.067351
-0.0666269
-0.0650513
-0.062535
-0.0590008
-0.0543897
-0.0486689
-0.0418417
-0.0339623
-0.0251512
-0.0156143
-0.00566139
0.00428133
0.0136734
0.0218879
0.0282751
0.0322664
0.0334613
0.0318946
0.0269728
0.023478
-0.0336859
-0.034458
-0.035653
-0.0363306
-0.0366572
-0.0366645
-0.0364505
-0.0361228
-0.0357897
-0.0355488
-0.0354815
-0.0356504
-0.0360999
-0.0368572
-0.0379344
-0.0393306
-0.0410333
-0.0430203
-0.0452599
-0.0477122
-0.0503297
-0.0530568
-0.0558308
-0.0585819
-0.061233
-0.0637006
-0.0658948
-0.06772
-0.0690759
-0.0698586
-0.0699609
-0.0692753
-0.0676989
-0.0651341
-0.061493
-0.0567037
-0.0507188
-0.0435244
-0.035155
-0.0257103
-0.0153759
-0.0044471
0.00665069
0.0173532
0.026974
0.034761
0.0400062
0.0421528
0.0411165
0.0361575
0.0324756
-0.0377653
-0.0386811
-0.0400474
-0.0407105
-0.0408868
-0.0406306
-0.040077
-0.0393686
-0.0386445
-0.0380258
-0.0376108
-0.037473
-0.0376624
-0.0382085
-0.0391227
-0.040402
-0.0420302
-0.0439808
-0.0462179
-0.0486967
-0.0513655
-0.0541638