# vtk DataFile Version 2.0
insac
ASCII
DATASET STRUCTURED_GRID
DIMENSIONS 151 51 1
POINTS 7701 float
0 0 0
0.0703713 0 0
0.140743 0 0
0.211114 0 0
0.281485 0 0
0.351857 0 0
0.422228 0 0
0.492599 0 0
0.562971 0 0
0.633342 0 0
0.703713 0 0
0.774085 0 0
0.844456 0 0
0.914827 0 0
0.985199 0 0
1.05557 0 0
1.12594 0 0
1.19631 0 0
1.26668 0 0
1.33706 0 0
1.40743 0 0
1.4778 0 0
1.54817 0 0
1.61854 0 0
1.68891 0 0
1.75928 0 0
1.82965 0 0
1.90003 0 0
1.9704 0 0
2.04077 -0.00166634 0
2.11114 -0.0125128 0
2.18151 -0.0341173 0
2.25188 -0.0680912 0
2.32225 -0.117717 0
2.39263 -0.176764 0
2.463 -0.235812 0
2.53337 -0.294859 0
2.60374 -0.353906 0
2.67411 -0.412954 0
2.74448 -0.472001 0
2.81485 -0.531049 0
2.88522 -0.590096 0
2.9556 -0.649144 0
3.02597 -0.708191 0
3.09634 -0.767239 0
3.16671 -0.826286 0
3.23708 -0.885317 0
3.30745 -0.934009 0
3.37782 -0.967283 0
3.4482 -0.988302 0
3.51857 -0.998618 0
3.58894 -1 0
3.65931 -1 0
3.72968 -1 0
3.80005 -1 0
3.87042 -1 0
3.94079 -1 0
4.01117 -1 0
4.08154 -1 0
4.15191 -1 0
4.22228 -1 0
4.29265 -1 0
4.36302 -1 0
4.43339 -1 0
4.50377 -1 0
4.57414 -1 0
4.64451 -1 0
4.71488 -1 0
4.78525 -1 0
4.85562 -1 0
4.92599 -1 0
4.99636 -1 0
5.06674 -1 0
5.13711 -1 0
5.20748 -1 0
5.27785 -1 0
5.34822 -1 0
5.41859 -1 0
5.48896 -1 0
5.55934 -1 0
5.62971 -1 0
5.70008 -1 0
5.77045 -1 0
5.84082 -1 0
5.91119 -1 0
5.98156 -1 0
6.05193 -1 0
6.12231 -0.990625 0
6.19268 -0.98125 0
6.26305 -0.971875 0
6.33342 -0.9625 0
6.40379 -0.953125 0
6.47416 -0.94375 0
6.54453 -0.934375 0
6.61491 -0.925 0
6.68528 -0.915625 0
6.75565 -0.90625 0
6.82602 -0.896875 0
6.89639 -0.8875 0
6.96676 -0.878125 0
7.03713 -0.86875 0
7.1075 -0.859375 0
7.17788 -0.85 0
7.24825 -0.840625 0
7.31862 -0.83125 0
7.38899 -0.821875 0
7.45936 -0.8125 0
7.52973 -0.803125 0
7.6001 -0.79375 0
7.67048 -0.784375 0
7.74085 -0.775 0
7.81122 -0.765625 0
7.88159 -0.75625 0
7.95196 -0.746875 0
8.02233 -0.7375 0
8.0927 -0.728125 0
8.16307 -0.71875 0
8.23345 -0.709375 0
8.30382 -0.7 0
8.37419 -0.690625 0
8.44456 -0.68125 0
8.51493 -0.671875 0
8.5853 -0.6625 0
8.65567 -0.653125 0
8.72605 -0.64375 0
8.79642 -0.634375 0
8.86679 -0.625 0
8.93716 -0.615625 0
9.00753 -0.60625 0
9.0779 -0.596875 0
9.14827 -0.5875 0
9.21864 -0.578125 0
9.28902 -0.568749 0
9.35939 -0.559374 0
9.42976 -0.549999 0
9.50013 -0.540624 0
9.5705 -0.531249 0
9.64087 -0.521874 0
9.71124 -0.512499 0
9.78162 -0.503124 0
9.85199 -0.493749 0
9.92236 -0.484374 0
9.99273 -0.474999 0
10.0631 -0.465624 0
10.1335 -0.456249 0
10.2038 -0.446874 0
10.2742 -0.437499 0
10.3446 -0.428124 0
10.415 -0.418749 0
10.4853 -0.409374 0
10.5557 -0.399999 0
0 0.02 0
0.0703713 0.02 0
0.140743 0.02 0
0.211114 0.02 0
0.281485 0.02 0
0.351857 0.02 0
0.422228 0.02 0
0.492599 0.02 0
0.562971 0.02 0
0.633342 0.02 0
0.703713 0.02 0
0.774085 0.02 0
0.844456 0.02 0
0.914827 0.02 0
0.985199 0.02 0
1.05557 0.02 0
1.12594 0.02 0
1.19631 0.02 0
1.26668 0.02 0
1.33706 0.02 0
1.40743 0.02 0
1.4778 0.02 0
1.54817 0.02 0
1.61854 0.02 0
1.68891 0.02 0
1.75928 0.02 0
1.82965 0.02 0
1.90003 0.02 0
1.9704 0.02 0
2.04077 0.018367 0
2.11114 0.00773744 0
2.18151 -0.013435 0
2.25188 -0.0467294 0
2.32225 -0.0953622 0
2.39263 -0.153229 0
2.463 -0.211095 0
2.53337 -0.268962 0
2.60374 -0.326828 0
2.67411 -0.384695 0
2.74448 -0.442561 0
2.81485 -0.500428 0
2.88522 -0.558294 0
2.9556 -0.616161 0
3.02597 -0.674028 0
3.09634 -0.731894 0
3.16671 -0.789761 0
3.23708 -0.847611 0
3.30745 -0.895328 0
3.37782 -0.927937 0
3.4482 -0.948536 0
3.51857 -0.958645 0
3.58894 -0.96 0
3.65931 -0.96 0
3.72968 -0.96 0
3.80005 -0.96 0
3.87042 -0.96 0
3.94079 -0.96 0
4.01117 -0.96 0
4.08154 -0.96 0
4.15191 -0.96 0
4.22228 -0.96 0
4.29265 -0.96 0
4.36302 -0.96 0
4.43339 -0.96 0
4.50377 -0.96 0
4.57414 -0.96 0
4.64451 -0.96 0
4.71488 -0.96 0
4.78525 -0.96 0
4.85562 -0.96 0
4.92599 -0.96 0
4.99636 -0.96 0
5.06674 -0.96 0
5.13711 -0.96 0
5.20748 -0.96 0
5.27785 -0.96 0
5.34822 -0.96 0
5.41859 -0.96 0
5.48896 -0.96 0
5.55934 -0.96 0
5.62971 -0.96 0
5.70008 -0.96 0
5.77045 -0.96 0
5.84082 -0.96 0
5.91119 -0.96 0
5.98156 -0.96 0
6.05193 -0.96 0
6.12231 -0.950812 0
6.19268 -0.941625 0
6.26305 -0.932437 0
6.33342 -0.92325 0
6.40379 -0.914062 0
6.47416 -0.904875 0
6.54453 -0.895687 0
6.61491 -0.8865 0
6.68528 -0.877312 0
6.75565 -0.868125 0
6.82602 -0.858937 0
6.89639 -0.84975 0
6.96676 -0.840562 0
7.03713 -0.831375 0
7.1075 -0.822187 0
7.17788 -0.813 0
7.24825 -0.803812 0
7.31862 -0.794625 0
7.38899 -0.785437 0
7.45936 -0.77625 0
7.52973 -0.767062 0
7.6001 -0.757875 0
7.67048 -0.748687 0
7.74085 -0.7395 0
7.81122 -0.730312 0
7.88159 -0.721125 0
7.95196 -0.711937 0
8.02233 -0.70275 0
8.0927 -0.693562 0
8.16307 -0.684375 0
8.23345 -0.675187 0
8.30382 -0.666 0
8.37419 -0.656812 0
8.44456 -0.647625 0
8.51493 -0.638437 0
8.5853 -0.62925 0
8.65567 -0.620062 0
8.72605 -0.610875 0
8.79642 -0.601687 0
8.86679 -0.5925 0
8.93716 -0.583312 0
9.00753 -0.574125 0
9.0779 -0.564937 0
9.14827 -0.55575 0
9.21864 -0.546562 0
9.28902 -0.537374 0
9.35939 -0.528187 0
9.42976 -0.518999 0
9.50013 -0.509812 0
9.5705 -0.500624 0
9.64087 -0.491437 0
9.71124 -0.482249 0
9.78162 -0.473062 0
9.85199 -0.463874 0
9.92236 -0.454687 0
9.99273 -0.445499 0
10.0631 -0.436312 0
10.1335 -0.427124 0
10.2038 -0.417937 0
10.2742 -0.408749 0
10.3446 -0.399562 0
10.415 -0.390374 0
10.4853 -0.381187 0
10.5557 -0.371999 0
0 0.04 0
0.0703713 0.04 0
0.140743 0.04 0
0.211114 0.04 0
0.281485 0.04 0
0.351857 0.04 0
0.422228 0.04 0
0.492599 0.04 0
0.562971 0.04 0
0.633342 0.04 0
0.703713 0.04 0
0.774085 0.04 0
0.844456 0.04 0
0.914827 0.04 0
0.985199 0.04 0
1.05557 0.04 0
1.12594 0.04 0
1.19631 0.04 0
1.26668 0.04 0
1.33706 0.04 0
1.40743 0.04 0
1.4778 0.04 0
1.54817 0.04 0
1.61854 0.04 0
1.68891 0.04 0
1.75928 0.04 0
1.82965 0.04 0
1.90003 0.04 0
1.9704 0.04 0
2.04077 0.0384003 0
2.11114 0.0279877 0
2.18151 0.00724739 0
2.25188 -0.0253676 0
2.32225 -0.0730079 0
2.39263 -0.129693 0
2.463 -0.186379 0
2.53337 -0.243065 0
2.60374 -0.29975 0
2.67411 -0.356436 0
2.74448 -0.413121 0
2.81485 -0.469807 0
2.88522 -0.526493 0
2.9556 -0.583178 0
3.02597 -0.639864 0
3.09634 -0.696549 0
3.16671 -0.753235 0
3.23708 -0.809904 0
3.30745 -0.856648 0
3.37782 -0.888592 0
3.4482 -0.90877 0
3.51857 -0.918673 0
3.58894 -0.92 0
3.65931 -0.92 0
3.72968 -0.92 0
3.80005 -0.92 0
3.87042 -0.92 0
3.94079 -0.92 0
4.01117 -0.92 0
4.08154 -0.92 0
4.15191 -0.92 0
4.22228 -0.92 0
4.29265 -0.92 0
4.36302 -0.92 0
4.43339 -0.92 0
4.50377 -0.92 0
4.57414 -0.92 0
4.64451 -0.92 0
4.71488 -0.92 0
4.78525 -0.92 0
4.85562 -0.92 0
4.92599 -0.92 0
4.99636 -0.92 0
5.06674 -0.92 0
5.13711 -0.92 0
5.20748 -0.92 0
5.27785 -0.92 0
5.34822 -0.92 0
5.41859 -0.92 0
5.48896 -0.92 0
5.55934 -0.92 0
5.62971 -0.92 0
5.70008 -0.92 0
5.77045 -0.92 0
5.84082 -0.92 0
5.91119 -0.92 0
5.98156 -0.92 0
6.05193 -0.92 0
6.12231 -0.911 0
6.19268 -0.902 0
6.26305 -0.893 0
6.33342 -0.884 0
6.40379 -0.875 0
6.47416 -0.866 0
6.54453 -0.857 0
6.61491 -0.848 0
6.68528 -0.839 0
6.75565 -0.83 0
6.82602 -0.821 0
6.89639 -0.812 0
6.96676 -0.803 0
7.03713 -0.794 0
7.1075 -0.785 0
7.17788 -0.776 0
7.24825 -0.767 0
7.31862 -0.758 0
7.38899 -0.749 0
7.45936 -0.74 0
7.52973 -0.731 0
7.6001 -0.722 0
7.67048 -0.713 0
7.74085 -0.704 0
7.81122 -0.695 0
7.88159 -0.686 0
7.95196 -0.677 0
8.02233 -0.668 0
8.0927 -0.659 0
8.16307 -0.65 0
8.23345 -0.641 0
8.30382 -0.632 0
8.37419 -0.623 0
8.44456 -0.614 0
8.51493 -0.605 0
8.5853 -0.596 0
8.65567 -0.587 0
8.72605 -0.578 0
8.79642 -0.569 0
8.86679 -0.56 0
8.93716 -0.551 0
9.00753 -0.542 0
9.0779 -0.533 0
9.14827 -0.524 0
9.21864 -0.515 0
9.28902 -0.506 0
9.35939 -0.496999 0
9.42976 -0.487999 0
9.50013 -0.478999 0
9.5705 -0.469999 0
9.64087 -0.460999 0
9.71124 -0.451999 0
9.78162 -0.442999 0
9.85199 -0.433999 0
9.92236 -0.424999 0
9.99273 -0.415999 0
10.0631 -0.406999 0
10.1335 -0.397999 0
10.2038 -0.388999 0
10.2742 -0.379999 0
10.3446 -0.370999 0
10.415 -0.361999 0
10.4853 -0.352999 0
10.5557 -0.343999 0
0 0.06 0
0.0703713 0.06 0
0.140743 0.06 0
0.211114 0.06 0
0.281485 0.06 0
0.351857 0.06 0
0.422228 0.06 0
0.492599 0.06 0
0.562971 0.06 0
0.633342 0.06 0
0.703713 0.06 0
0.774085 0.06 0
0.844456 0.06 0
0.914827 0.06 0
0.985199 0.06 0
1.05557 0.06 0
1.12594 0.06 0
1.19631 0.06 0
1.26668 0.06 0
1.33706 0.06 0
1.40743 0.06 0
1.4778 0.06 0
1.54817 0.06 0
1.61854 0.06 0
1.68891 0.06 0
1.75928 0.06 0
1.82965 0.06 0
1.90003 0.06 0
1.9704 0.06 0
2.04077 0.0584336 0
2.11114 0.048238 0
2.18151 0.0279297 0
2.25188 -0.00400573 0
2.32225 -0.0506536 0
2.39263 -0.106158 0
2.463 -0.161663 0
2.53337 -0.217167 0
2.60374 -0.272672 0
2.67411 -0.328177 0
2.74448 -0.383681 0
2.81485 -0.439186 0
2.88522 -0.494691 0
2.9556 -0.550195 0
3.02597 -0.6057 0
3.09634 -0.661204 0
3.16671 -0.716709 0
3.23708 -0.772198 0
3.30745 -0.817968 0
3.37782 -0.849246 0
3.4482 -0.869004 0
3.51857 -0.878701 0
3.58894 -0.88 0
3.65931 -0.88 0
3.72968 -0.88 0
3.80005 -0.88 0
3.87042 -0.88 0
3.94079 -0.88 0
4.01117 -0.88 0
4.08154 -0.88 0
4.15191 -0.88 0
4.22228 -0.88 0
4.29265 -0.88 0
4.36302 -0.88 0
4.43339 -0.88 0
4.50377 -0.88 0
4.57414 -0.88 0
4.64451 -0.88 0
4.71488 -0.88 0
4.78525 -0.88 0
4.85562 -0.88 0
4.92599 -0.88 0
4.99636 -0.88 0
5.06674 -0.88 0
5.13711 -0.88 0
5.20748 -0.88 0
5.27785 -0.88 0
5.34822 -0.88 0
5.41859 -0.88 0
5.48896 -0.88 0
5.55934 -0.88 0
5.62971 -0.88 0
5.70008 -0.88 0
5.77045 -0.88 0
5.84082 -0.88 0
5.91119 -0.88 0
5.98156 -0.88 0
6.05193 -0.88 0
6.12231 -0.871187 0
6.19268 -0.862375 0
6.26305 -0.853562 0
6.33342 -0.84475 0
6.40379 -0.835937 0
6.47416 -0.827125 0
6.54453 -0.818312 0
6.61491 -0.8095 0
6.68528 -0.800687 0
6.75565 -0.791875 0
6.82602 -0.783062 0
6.89639 -0.77425 0
6.96676 -0.765437 0
7.03713 -0.756625 0
7.1075 -0.747812 0
7.17788 -0.739 0
7.24825 -0.730187 0
7.31862 -0.721375 0
7.38899 -0.712562 0
7.45936 -0.70375 0
7.52973 -0.694937 0
7.6001 -0.686125 0
7.67048 -0.677312 0
7.74085 -0.6685 0
7.81122 -0.659687 0
7.88159 -0.650875 0
7.95196 -0.642062 0
8.02233 -0.63325 0
8.0927 -0.624437 0
8.16307 -0.615625 0
8.23345 -0.606812 0
8.30382 -0.598 0
8.37419 -0.589187 0
[...]
POINT_DATA 7701
SCALARS pressure float 1
LOOKUP_TABLE default
0.198
0.195137
0.189811
0.184654
0.179255
0.173801
0.168281
0.162713
0.157101
0.151447
0.145752
0.140013
0.134226
0.128386
0.122486
0.116516
0.110466
0.104321
0.0980656
0.0916754
0.0851303
0.0783873
0.0714212
0.0641503
0.0565482
0.0484314
0.039791
0.0300855
0.0193775
0.0035404
-0.0121307
-0.0168077
-0.0118166
0.00169951
0.0184745
0.0309092
0.0397005
0.0468057
0.0523589
0.0569047
0.0606504
0.0638098
0.0665347
0.0689616
0.0711707
0.0732847
0.0749
0.0756981
0.0761779
0.0766203
0.0769838
0.0777104
0.0789095
0.0802711
0.0817907
0.0834278
0.0851731
0.0870129
0.088937
0.0909342
0.0929936
0.095104
0.0972543
0.0994332
0.10163
0.103832
0.106031
0.108215
0.110374
0.112498
0.11458
0.11661
0.118581
0.120487
0.122321
0.124078
0.125755
0.127348
0.128856
0.130273
0.131607
0.132841
0.134009
0.135041
0.136087
0.136863
0.137965
0.139038
0.139573
0.140135
0.140463
0.140667
0.140704
0.140592
0.140327
0.139916
0.139363
0.138673
0.137852
0.136908
0.135847
0.134676
0.133402
0.132033
0.130573
0.129031
0.127412
0.125722
0.123965
0.122147
0.120272
0.118344
0.116365
0.114339
0.112268
0.110155
0.107999
0.105804
0.103569
0.101295
0.0989815
0.0966294
0.094238
0.0918066
0.0893345
0.0868207
0.084264
0.0816631
0.0790166
0.076323
0.0735806
0.0707877
0.0679422
0.0650423
0.0620858
0.0590709
0.0559945
0.0528553
0.0496491
0.0463754
0.0430278
0.0396084
0.0361046
0.0325267
0.0288456
0.025096
0.0211993
0.0172715
0.0130378
0.00893704
0.00448225
0.198062
0.195148
0.189784
0.184638
0.17924
0.173788
0.168269
0.162701
0.157089
0.151435
0.145739
0.139998
0.13421
0.128368
0.122465
0.116492
0.110438
0.104288
0.0980272
0.0916298
0.0850759
0.0783217
0.0713419
0.064052
0.0564257
0.0482705
0.0395763
0.0297608
0.0190881
0.00404333
-0.0106269
-0.0151222
-0.0108442
0.00157684
0.0177496
0.0301472
0.0390067
0.0461813
0.0518056
0.0564103
0.0602066
0.063406
0.0661581
0.0685984
0.0707992
0.0729098
0.0745929
0.0755104
0.0760963
0.0766333
0.0770924
0.0778646
0.0790449
0.0803751
0.0818694
0.0834853
0.0852127
0.0870364
0.0889459
0.0909294
0.092976
0.0950742
0.0972129
0.0993808
0.101567
0.10376
0.105949
0.108125
0.110276
0.112394
0.114469
0.116494
0.118461
0.120363
0.122194
0.12395
0.125626
0.127218
0.128726
0.130145
0.131482
0.132719
0.133894
0.134933
0.135997
0.136781
0.137854
0.138879
0.139389
0.13995
0.140269
0.140469
0.1405
0.140385
0.140117
0.139704
0.13915
0.13846
0.13764
0.136697
0.135638
0.13447
0.133198
0.131831
0.130375
0.128836
0.12722
0.125533
0.12378
0.121965
0.120092
0.118167
0.116191
0.114167
0.112098
0.109986
0.107832
0.105638
0.103404
0.101131
0.0988182
0.0964664
0.094075
0.0916435
0.089171
0.0866565
0.084099
0.0814971
0.0788495
0.0761545
0.0734106
0.070616
0.0677687
0.0648668
0.0619082
0.058891
0.0558122
0.0526703
0.0494614
0.0461848
0.0428339
0.039411
0.0359033
0.0323212
0.0286348
0.0248798
0.0209741
0.0170367
0.0127884
0.00868082
0.00346044
0.198171
0.195181
0.189751
0.184614
0.179217
0.173768
0.16825
0.162682
0.15707
0.151415
0.145718
0.139975
0.134184
0.128338
0.122431
0.116453
0.110393
0.104236
0.0979653
0.0915563
0.0849886
0.0782166
0.071215
0.0638956
0.0562324
0.04802
0.0392532
0.0293028
0.0187228
0.00498152
-0.008058
-0.0122113
-0.00902078
0.00154112
0.0165964
0.0288688
0.0378128
0.0450977
0.0508427
0.0555499
0.0594355
0.0627068
0.0655098
0.0679792
0.0701743
0.0722733
0.0740521
0.0751583
0.0759173
0.0766055
0.0772138
0.0780584
0.0792161
0.0805075
0.0819673
0.0835532
0.0852546
0.0870551
0.0889432
0.0909068
0.0929346
0.0950152
0.0971373
0.0992896
0.101461
0.10364
0.105817
0.107981
0.110122
0.11223
0.114297
0.116315
0.118276
0.120173
0.122001
0.123754
0.125428
0.127021
0.128531
0.129952
0.131294
0.132535
0.133722
0.134768
0.135859
0.136646
0.13768
0.138642
0.139115
0.139673
0.139976
0.140168
0.140189
0.140067
0.139794
0.139377
0.13882
0.138129
0.137308
0.136366
0.135308
0.134142
0.132874
0.13151
0.130057
0.128522
0.126911
0.125228
0.123479
0.121668
0.1198
0.117878
0.115905
0.113885
0.111819
0.109709
0.107558
0.105365
0.103132
0.10086
0.0985482
0.0961967
0.0938052
0.0913732
0.0888999
0.0863843
0.0838253
0.0812216
0.0785719
0.0758746
0.073128
0.0703304
0.0674799
0.0645746
0.0616123
0.0585911
0.0555081
0.0523618
0.049148
0.0458663
0.0425098
0.0390812
0.0355667
0.0319778
0.0282824
0.0245188
0.020599
0.0166489
0.0123841
0.00827826
0.00326773
0.198258
0.195226
0.189746
0.184601
0.179204
0.173755
0.168237
0.162669
0.157057
0.151401
0.145703
0.139959
0.134166
0.128318
0.122408
0.116427
0.110363
0.1042
0.0979236
0.0915072
0.0849307
0.0781475
0.071133
0.063796
0.0561135
0.0478737
0.0390877
0.0291328
0.0187184
0.00598439
-0.0058743
-0.00976251
-0.00728459
0.00180872
0.0158357
0.0279023
0.0368476
0.0441939
0.0500271
0.0548144
0.058773
0.0621046
0.0649521
0.0674505
0.0696525
0.0717363
0.073567
0.0748068
0.075698
0.0764995
0.0772171
0.0781176
0.079271
0.0805507
0.0819934
0.0835625
0.085248
0.0870339
0.0889085
0.0908597
0.092876
0.0949458
0.0970579
0.099201
0.101364
0.103535
0.105705
0.107863
0.109998
0.112101
0.114164
0.116178
0.118137
0.120032
0.121858
0.123611
0.125286
0.126879
0.128391
0.129814
0.13116
0.132405
0.1336
0.134649
0.135756
0.13653
0.137545
0.138483
0.138923
0.139477
0.139766
0.13995
0.139963
0.139833
0.139554
0.139132
0.13857
0.137875
0.137053
0.136109
0.13505
0.133883
0.132615
0.131253
0.129802
0.128268
0.126659
0.124978
0.123231
0.121423
0.119557
0.117637
0.115667
0.113649
0.111585
0.109477
0.107327
0.105136
0.102905
0.100633
0.0983217
0.0959705
0.0935789
0.0911466
0.0886726
0.0861561
0.083596
0.0809909
0.0783395
0.0756403
0.0728915
0.0700916
0.0672385
0.0643304
0.0613651
0.0583406
0.0552541
0.0521042
0.0488864
0.0456006
0.0422396
0.0388064
0.0352864
0.0316925
0.0279903
0.0242212
0.0202927
0.0163384
0.0120754
0.00799162
0.00313694
0.198328
0.195277
0.189757
0.184594
0.179195
0.173745
0.168227
0.16266
0.157047
0.151391
0.145692
0.139947
0.134153
0.128304
0.122392
0.116408
0.110342
0.104176
0.0978961
0.0914751
0.0848936
0.0781041
0.0710833
0.0637382
0.0560505
0.0478073
0.039042
0.0291706
0.0190112
0.00722828
-0.00361904
-0.00734382
-0.00549129
0.00227176
0.0152851
0.0270945
0.0359875
0.043356
0.0492539
0.0541062
0.0581273
0.0615124
0.0643998
0.0669236
0.0691353
0.0712029
0.0730699
0.0744235
0.0754315
0.0763352
0.0771553
0.0781106
0.0792668
0.0805449
0.0819772
0.0835349
0.0852085
0.0869833
0.0888474
0.0907888
0.0927961
0.0948576
0.0969621
0.0990982
0.101255
0.103421
0.105585
0.107738
0.10987
0.11197
0.114031
0.116043
0.118
0.119894
0.12172
0.123473
0.125149
0.126744
0.128258
0.129683
0.131034
0.132282
0.133484
0.134535
0.135655
0.136412
0.137411
0.138334
0.138741
0.139288
0.139564
0.139738
0.139741
0.139604
0.139317
0.138888
0.138321
0.137622
0.136795
0.135849
0.134788
0.133621
0.132352
0.13099
0.129539
0.128007
0.126399
0.124721
0.122976
0.12117
0.119307
0.11739
0.115422
0.113406
0.111344
0.109239
0.107091
0.104901
0.102671
0.1004
0.09809
0.0957393
0.093348
0.0909157
0.0884415
0.0859244
0.0833635
0.0807573
0.0781046
0.0754038
0.0726532
0.0698512
0.0669958
0.0640852
0.0611171
0.0580897
0.055
0.0518467
0.0486253
0.0453359
0.0419706
0.0385335
0.0350087
0.0314107
0.0277029
0.0239304
0.0199967
0.016044
0.0117925
0.0077387
0.00302373
0.198381
0.195329
0.189782
0.184593
0.179192
0.17374
0.168221
0.162654
0.157041
0.151385
0.145686
0.139941
0.134147
0.128297
0.122385
0.116401
0.110334
0.104167
0.0978864
0.0914646
0.084883
0.0780933
0.0710744
0.0637331
0.0560568
0.0478379
0.0391348
0.0294224
0.0195845
0.00868425
-0.00130069
-0.00494529
-0.00364445
0.00292315
0.0149436
0.0264565
0.0352605
0.0426157
0.0485539
0.0534552
0.0575273
0.0609578
0.0638805
0.0664262
0.0686492
0.0706971
0.0725813
0.0740237
0.0751254
0.0761125
0.0770215
0.0780266
0.0791914
0.0804784
0.0819088
0.0834626
0.0851305
0.0868994
0.0887577
0.0906937
0.092696
0.094753
0.0968534
0.0989859
0.101139
0.103303
0.105465
0.107617
0.109747
0.111846
0.113906
0.115918
0.117875
0.11977
0.121598
0.123352
0.125029
0.126625
0.128142
0.12957
0.130924
0.132174
0.133383
0.134432
0.135562
0.1363
0.137286
0.138202
0.138577
0.139118
0.13938
0.139544
0.139538
0.139391
0.139095
0.138659
0.138086
0.137381
0.13655
0.1356
0.134537
0.133367
0.132097
0.130734
0.129284
0.127753
0.126146
0.124469
0.122727
0.120923
0.119062
0.117147
0.115182
0.113169
0.11111
0.109006
0.10686
0.104673
0.102444
0.100176
0.0978663
0.0955166
0.0931261
0.0906941
0.0882201
0.0857029
0.0831415
0.0805347
0.077881
0.075179
0.0724269
0.0696232
0.0667659
0.0638532
0.0608827
0.0578528
0.0547603
0.0516042
0.0483796
0.045087
0.0417183
0.0382779
0.0347492
0.0311485
0.0274368
0.0236635
0.0197288
0.015783
0.0115512
0.00753081
0.00293229
0.198418
0.195381
0.189818
0.184598
0.179194
0.173738
0.168219
0.162651
0.157039
0.151383
0.145685
0.139941
0.134147
0.128299
0.122388
0.116405
0.110339
0.104175
0.0978967
0.0914783
0.0849017
0.0781188
0.0711109
0.0637859
0.0561388
0.0479715
0.0393685
0.0298738
0.0204029
0.0103283
0.00110477
-0.00251907
-0.00173061
0.00374219
0.0147816
0.0259627
0.0346557
0.0419705
0.0479261
0.0528605
0.0569722
0.0604398
0.0633925
0.0659557
0.0681896
0.0702148
0.0721019
0.0736138
0.0747897
0.0758443
0.0768323
0.0778836
0.0790602
0.0803623
0.0817967
0.0833522
0.0850191
0.0867863
0.0886426
0.0905766
0.0925769
0.0946323
0.0967314
0.0988628
0.101016
0.103178
0.105341
0.107492
0.109623
0.111723
0.113784
0.115797
0.117755
0.119652
0.121481
0.123236
0.124916
0.126514
0.128033
0.129462
0.13082
0.132071
0.133285
0.13433
0.135467
0.136185
0.137159
0.138072
0.138416
0.138948
0.139197
0.13935
0.139332
0.139175
0.138871
0.138427
0.137846
0.137135
0.136299
0.135344
0.134278
0.133106
0.131835
0.130472
0.129022
0.127492
0.125887
0.124212
0.122471
0.12067
0.118812
0.116901
0.114939
0.112929
0.110873
0.108772
0.106629
0.104444
0.102218
0.0999516
0.0976443
0.0952962
0.0929071
0.0904762
0.0880029
0.0854861
0.0829249
0.0803179
0.0776637
0.074961
0.072208
0.069403
0.0665442
0.0636298
0.0606574
0.0576254
0.0545306
0.0513721
0.0481449
0.0448498
0.0414781
0.0380354
0.0345039
0.0309017
0.027188
0.0234162
0.0194842
0.0155499
0.0113429
0.00735642
0.00285626
0.198441
0.195433
0.189865
0.184609
0.179201
0.17374
0.16822
0.162653
0.157041
0.151387
0.14569
0.139947
0.134156
0.12831
0.122402
0.116422
0.11036
0.104201
0.0979292
0.0915188
0.084953
0.0781844
0.0711972
0.0639022
0.056302
0.0482132
0.0397442
0.0305114
0.0214328
0.0121238
0.00358694
-4.70703e-05
0.00026075
0.00472027
0.0147814
0.0255931
0.0341618
0.0414187
0.0473739
0.0523261
0.0564666
0.0599636
0.0629409
0.0655173
0.0677609
0.0697601
0.0716382
0.073203
0.0744352
0.0755418
0.0765993
0.0776927
0.0788823
0.080204
0.0816469
0.0832088
0.0848789
0.0866484
0.088506
0.090441
0.0924423
0.0944986
0.0965987
0.0987313
0.100885
0.10305
0.105213
0.107367
0.109499
0.111601
0.113664
0.115679
0.117639
0.119537
0.121367
0.123125
0.124806
0.126406
0.127927
0.129358
0.130718
0.131968
0.133186
0.134225
0.135367
0.136064
0.137025
0.137936
0.13825
0.138771
0.139006
0.139146
0.139117
0.13895
0.138635
0.138182
0.137594
0.136876
0.136035
0.135076
0.134007
0.132833
0.131561
0.130197
0.128748
0.12722
0.125617
0.123944
0.122207
0.12041
0.118555
0.116648
0.11469
0.112684
0.110632
0.108535
0.106396
0.104215
0.101992
0.0997284
0.0974238
0.0950782
0.0926911
0.090262
0.0877902
0.0852745
0.0827141
0.0801075
0.0774535
0.0747506
0.0719971
0.0691914
0.0663316
0.063416
0.0604421
0.0574085
0.0543119
0.0511515
0.0479222
0.0446253
0.0412515
0.0378073
0.0342739
0.0306716
0.0269578
0.0231899
0.019264
0.0153443
0.0111651
0.00721128
0.00279327
0.198452
0.195485
0.189921
0.184627
0.179212
0.173747
0.168226
0.162658
0.157048
0.151395
0.145701
0.139961
0.134173
0.128331
0.122427
0.116453
0.110398
0.104247
0.0979859
0.0915885
0.0850397
0.0782935
0.0713371
0.0640857
0.0565504
0.0485647
0.0402586
0.0313194
0.0226432
0.0140374
0.00612838
0.00247674
0.00233752
0.00585417
0.0149322
0.0253293
0.0337634
0.040952
0.0468948
0.0518535
0.056012
0.0595308
0.0625282
0.0651138
0.0673658
0.0693363
0.0711958
0.0728009
0.0740744
0.0752191
0.0763375
0.0774691
0.0786719
0.0800156
0.0814699
0.0830415
0.0847178
0.0864924
0.0883539
0.0902924
0.0922967
0.0943559
0.0964586
0.0985938
0.100751
0.102918
0.105084
0.10724
0.109374
0.111478
0.113543
0.11556
0.117522
0.119422
0.121254
0.123013
0.124696
0.126297
0.127819
0.12925
0.130611
0.13186
0.133078
0.134111
0.135253
0.135931
0.136876
0.137785
0.138069
0.138576
0.138798
0.138924
0.138882
0.138703
0.138378
0.137916
0.13732
0.136595
0.135749
0.134786
0.133714
0.132538
0.131266
0.129903
0.128456
0.126929
0.12533
0.123661
0.121928
0.120135
0.118286
0.116384
0.114431
0.11243
0.110384
0.108292
0.106158
0.103981
0.101763
0.0995036
0.0972028
0.0948606
0.0924766
0.0900502
0.0875805
0.0850668
0.0825079
0.0799025
0.0772493
0.0745468
0.0717934
0.0689876
0.0661273
0.0632111
0.0602362
0.0572016
0.0541037
0.050942
0.0477112
0.044413
0.0410378
0.037593
0.034059
0.0304579
0.0267457
0.0229837
0.0190665
0.0151637
0.0110138
0.00709027
0.00274079
0.198455
0.195536
0.189986
0.184653
0.179229
0.173758
0.168235
0.162669
0.15706
0.15141
0.145718
0.139983
0.134199
0.128362
0.122466
0.116499
0.110454
0.104315
0.0980684
0.0916893
0.0851641
0.0784484
0.0715333
0.0643391
0.0568856
0.0490253
0.0409058
0.0322815
0.024007
0.0160405
0.00870887
0.00504857
0.0045033
0.00714469
0.0152309
0.0251592
0.0334449
0.0405596
0.0464828
0.0514406
0.0556095
0.0591427
0.0621558
0.0647477
0.0670072
0.0689469
0.0707805
0.0724167
0.0737193
0.0748902
0.0760616
0.0772277
0.0784428
0.0798095
0.0812769
0.0828602
0.0845449
0.0863264
0.0881937
0.0901372
0.092146
0.0942093
0.096316
0.0984547
0.100615
0.102785
0.104954
0.107112
0.109249
0.111355
0.113422
0.11544
0.117404
0.119305
0.121138
0.122897
0.124581
0.126181
0.127704
0.129133
0.130494
0.131739
0.132957
0.133979
0.135119
0.135779
0.136707
0.137611
0.137866
0.138356
0.138563
0.138673
0.138619
0.138427
0.138091
0.13762
0.137015
0.136285
0.135433
0.134467
0.133393
0.132217
0.130945
0.129584
0.128139
0.126617
0.125021
0.123358
0.121631
0.119844
0.118002
0.116106
0.11416
0.112166
0.110126
0.108041
0.105913
0.103743
0.10153
0.0992759
0.0969801
0.0946424
0.0922625
0.0898397
0.0873733
0.0848623
0.0823057
0.0797023
0.0770506
0.0743493
0.0715967
0.0687913
0.0659312
0.0630148
0.0600396
0.0570044
0.0539058
0.0507434
0.0475117
0.044213
0.0408371
0.0373927
0.033859
0.0302604
0.0265513
0.022797
0.0188906
0.0150059
0.0108853
0.00698944
0.00269694
0.198451
0.195586
0.190059
0.184688
0.179251
0.173774
0.16825
0.162683
0.157077
0.15143
0.145743
0.140012
0.134235
0.128405
0.122518
0.116562
0.11053
0.104405
0.0981781
0.0918227
0.0853277
0.0786509
0.0717873
0.0646636
0.0573076
0.049592
0.0416776
0.0333807
0.0255002
0.0181102
0.0113097
0.0076587
0.00675645
0.00859369
0.0156814
0.0250781
0.0331932
0.0402294
0.0461293
0.0510824
0.055257
0.0587995
0.0618244
0.0644197
0.0666868
0.0685949
0.0703974
0.0720588
0.0733818
0.0745686
0.0757864
0.0769835
0.0782094
0.0795989
0.08108
0.0826758
0.0843698
0.0861595
0.0880335
0.0899828
0.0919967
0.0940646
0.0961753
0.0983177
0.100481
0.102654
0.104825
0.106986
0.109124
0.111232
0.113299
0.115319
0.117282
0.119183
0.121016
0.122774
0.124456
0.126055
0.127576
0.129002
0.130361
0.131599
0.132814
0.133825
0.13496
0.135602
0.136509
0.137406
0.137634
0.138103
0.138295
0.138387
0.138319
0.138114
0.137767
0.137286
0.136674
0.135937
0.135081
0.134113
0.133037
0.131862
0.130592
0.129234
0.127794
0.126277
0.124688
0.123031
0.121312
0.119533
0.117699
0.115812
0.113874
0.111889
0.109857
0.10778
0.10566
0.103497
0.101292
0.0990441
0.0967545
0.0944226
0.0920479
0.0896298
0.0871677
0.0846604
0.082107
0.0795063
0.0768569
0.0741575
0.0714064
0.0686021
0.0657427
0.0628268
0.0598518
0.0568167
0.0537179
0.0505554
0.0473235
0.0440249
0.0406492
0.0372058
0.0336735
0.0300786
0.0263741
0.0226286
0.0187347
0.0148685
0.0107765
0.00690533
0.00266017
0.198443
0.195635
0.190138
0.18473
0.17928
0.173795
0.168269
0.162703
0.157099
0.151457
0.145775
0.14005
0.134281
0.12846
0.122584
0.116641
0.110624
0.104519
0.0983158
0.0919896
0.0855315
0.0789019
0.0720997
0.0650588
0.0578144
0.0502598
0.0425645
0.0346002
0.0271016
0.0202287
0.0139152
0.0102943
0.00908999
0.0102014
0.0162922
0.0250894
0.033
0.0399497
0.0458243
0.0507717
0.05495
0.0584991
0.0615335
0.0641302
0.0664053
0.0682823
0.0700508
0.0717342
0.0730719
0.0742665
0.0755249
0.07675
0.0779848
0.0793964
0.080891
0.0824992
0.0842027
0.0860005
0.0878812
0.0898363
0.0918551
0.0939271
0.0960414
0.0981868
0.100352
0.102527
0.1047
0.106862
0.109001
0.111108
0.113175
0.115193
0.117155
0.119054
0.120884
0.12264
0.124319
0.125913
0.127431
0.128851
0.130205
0.131435
0.132644
0.133642
0.134767
0.135394
0.136277
0.137163
0.137365
0.13781
0.137986
0.13806
0.137977
0.137758
0.1374
0.136909
0.13629
0.135548
0.134688
0.133718
0.132643
0.13147
0.130204
0.128851
0.127417
0.125907
0.124326
0.122679
0.120969
0.1192
0.117376
0.115499
0.113572
0.111597
0.109575
0.107508
0.105398
0.103244
0.101047
0.0988075
0.0965255
0.0942005
0.0918323
0.0894201
0.0869632
0.0844607
0.0819114
0.0793143
0.076668
0.0739712
0.0712223
0.0684198
0.0655618
0.062647
0.0596728
0.0566383
0.0535399
0.0503778
0.0471463
0.0438485
0.0404737
0.0370323
0.0335023
0.0299119
0.0262132
0.0224776
0.018597
0.0147492
0.0106843
0.00683508
0.00262919
0.198431
0.195682
0.190221
0.18478
0.179315
0.173822
0.168293
0.162728
0.157127
0.15149
0.145814
0.140097
0.134337
0.128528
0.122664
0.116737
0.110739
0.104657
0.0984819
0.0921905
0.0857757
0.0792013
0.0724699
0.0655232
0.0584028
0.0510224
0.0435559
0.0359237
0.0287923
0.0223814
0.016513
0.0129418
0.0114923
0.0119642
0.0170737
0.0252042
0.032864
0.0397119
0.0455578
0.0505
0.0546823
0.0582372
0.0612804
0.0638782
0.0661625
0.0680099
0.069743
0.0714481
0.072798
0.0739943
0.0752885
0.0765394
0.0777811
0.0792133
0.0807204
0.0823402
0.0840524
0.0858574
0.087744
0.089704
0.0917269
0.0938022
0.095919
0.0980662
0.100233
0.102408
0.104581
0.106741
0.108879
0.110984
0.113048
0.115063
0.117021
0.118916
0.120741
0.122491
0.124165
0.125752
0.127263
0.128675
0.130022
0.131241
0.13244
0.133424
0.134535
0.135148
0.136004
0.136876
0.137053
0.137471
0.137629
0.137683
0.137585
0.137352
0.136983
0.136483
0.135858
0.135111
0.13425
0.13328
0.132207
0.131037
0.129777
0.128431
0.127005
0.125505
0.123934
0.122298
0.1206
0.118843
0.117031
0.115167
0.113252
0.111289
0.10928
0.107225
0.105125
0.102982
0.100795
0.0985656
0.0962925
0.0939759
0.0916153
0.0892102
0.0867596
0.0842628
0.0817187
0.0791261
0.0764837
0.0737903
0.0710442
0.0682442
0.0653882
0.0624751
0.0595022
0.0564689
0.0533715
0.0502105
0.04698
0.0436836
0.0403103
0.0368716
0.0333447
0.0297598
0.0260677
0.0223427
0.0184758
0.014646
0.0106064
0.00677631
0.00260299
0.198417
0.195728
0.190307
0.184838
0.179355
0.173854
0.168322
0.162759
0.157161
0.151529
0.145861
0.140153
0.134404
0.128607
0.122759
0.11685
0.110875
0.104819
0.0986763
0.092425
0.0860598
0.0795482
0.0728962
0.0660539
0.0590681
0.0518721
0.0446402
0.0373354
0.0305549
0.0245563
0.0190934
0.0155881
0.0139482
0.0138732
0.0180349
0.0254385
0.0327908
0.039512
0.0453213
0.0502585
0.0544465
0.0580082
0.061061
0.0636604
0.0659566
0.067778
0.0694756
0.0712036
0.0725661
0.0737599
0.0750861
0.0763609
0.0776076
0.0790584
0.0805767
0.0822065
0.0839262
0.0857373
0.0876285
0.0895921
0.0916174
0.0936943
0.0958118
0.0979589
0.100125
0.102298
0.104468
0.106625
0.108759
0.110859
0.112918
0.114926
0.116878
0.118765
0.120582
0.122324
0.123988
0.125567
0.127068
0.128469
0.129804
0.13101
0.132196
0.133164
0.134257
0.134858
0.135684
0.136537
0.136692
0.137079
0.13722
0.137254
0.13714
0.136893
0.136513
0.136005
0.135374
0.134625
0.133763
0.132795
0.131726
0.130562
0.129309
0.127973
0.126558
0.125069
0.123511
0.121888
0.120204
0.118462
0.116664
0.114815
0.112915
0.110966
0.10897
0.106929
0.104843
0.102712
0.100537
0.0983183
0.0960557
0.0937487
0.0913971
0.0890001
0.086557
0.0840669
0.0815288
0.0789416
0.076304
0.0736147
0.0708722
0.0680753
0.0652219
0.0623111
0.0593402
0.0563086
0.0532127
0.0500533
0.0468243
0.04353
0.0401588
0.0367234
0.0332004
0.0296215
0.0259369
0.0222227
0.0183697
0.0145569
0.0105405